% Model:              单向传输.mph
% Version:            COMSOL 5.4.0.225
% Date:               Jun 27 2019, 10:04
% Dimension:          1
% Nodes:              5001
% Expressions:        1
% Description:        全局
% X                       Height
0.9319563817232273        0.026845637583892617
0.9318854034540007        0.026859060402684567
0.9318130528897705        0.02687248322147651
0.9317393249047963        0.026885906040268456
0.9316642140406891        0.026899328859060403
0.9315877145233415        0.02691275167785235
0.9315098202522415        0.026926174496644292
0.9314305247937881        0.026939597315436242
0.9313498213841654        0.02695302013422819
0.9312677029245499        0.026966442953020135
0.9311841619712313        0.02697986577181208
0.931099190747665         0.026993288590604025
0.9310127811201581        0.027006711409395975
0.9309249246089939        0.027020134228187918
0.9308356123787362        0.027033557046979868
0.9307448352359325        0.027046979865771814
0.9306525836196373        0.027060402684563757
0.9305588476071424        0.027073825503355707
0.9304636168913089        0.02708724832214765
0.9303668807951027        0.0271006711409396
0.9302686282505113        0.027114093959731543
0.9301688478066998        0.02712751677852349
0.930067527609807         0.027140939597315436
0.9299646554041642        0.027154362416107383
0.929860218532358         0.027167785234899332
0.9297542039136235        0.027181208053691275
0.9296465980512629        0.027194630872483222
0.929537387016387         0.02720805369127517
0.9294265564420605        0.027221476510067115
0.9293140915221577        0.027234899328859058
0.9291999769998955        0.027248322147651008
0.9290841971460836        0.02726174496644295
0.9289667357797565        0.0272751677852349
0.9288475762307209        0.027288590604026847
0.9287267013471675        0.02730201342281879
0.9286040934835782        0.02731543624161074
0.9284797344789952        0.027328859060402683
0.9283536056696406        0.027342281879194633
0.9282256878597399        0.027355704697986576
0.9280959613158487        0.027369127516778523
0.9279644057618868        0.027382550335570473
0.9278310003555073        0.027395973154362416
0.9276957236901452        0.027409395973154366
0.927558553773431         0.02742281879194631
0.9274194680165182        0.027436241610738255
0.9272784432234767        0.0274496644295302
0.927135455572939         0.027463087248322148
0.9269904806085877        0.02747651006711409
0.9268434932279438        0.02748993288590604
0.9266944676572699        0.027503355704697988
0.926543377439399         0.027516778523489934
0.9263901954315374        0.02753020134228188
0.9262348937680197        0.027543624161073824
0.9260774438555308        0.027557046979865774
0.9259178163534656        0.027570469798657717
0.925755981155699         0.027583892617449667
0.9255919073710929        0.02759731543624161
0.9254255633068291        0.027610738255033556
0.9252569164410808        0.027624161073825506
0.9250859334148919        0.02763758389261745
0.9249125799990312        0.0276510067114094
0.9247368210792417        0.027664429530201342
0.9245586206318012        0.02767785234899329
0.9243779416973136        0.027691275167785235
0.9241947463539381        0.02770469798657718
0.9240089957075285        0.02771812080536913
0.9238206498497378        0.027731543624161074
0.9236296678328648        0.02774496644295302
0.9234360076485054        0.027758389261744967
0.9232396262030288        0.027771812080536914
0.9230404792711848        0.027785234899328857
0.9228385214798306        0.027798657718120807
0.9226337062764847        0.02781208053691275
0.9224259858831111        0.0278255033557047
0.9222153112791478        0.027838926174496646
0.9220016321548015        0.02785234899328859
0.9217848968816382        0.02786577181208054
0.9215650524719929        0.027879194630872482
0.9213420445338896        0.027892617449664432
0.9211158172504298        0.027906040268456375
0.9208863133093831        0.02791946308724832
0.9206534738977199        0.027932885906040268
0.9204172386129383        0.027946308724832215
0.9201775454556715        0.027959731543624165
0.919934330759472         0.027973154362416108
0.9196875291485688        0.027986577181208054
0.9194370734916081        0.028
0.9191828948362907        0.028013422818791947
0.9189249223665014        0.02802684563758389
0.9186630833343173        0.02804026845637584
0.9183973030185529        0.028053691275167787
0.9181275046484909        0.028067114093959733
0.9178536093325328        0.02808053691275168
0.9175755360290555        0.028093959731543622
0.9172932014299986        0.028107382550335572
0.9170065199284468        0.028120805369127515
0.9167154035291527        0.028134228187919465
0.9164197617722032        0.02814765100671141
0.9161195016605046        0.028161073825503355
0.9158145275769642        0.028174496644295305
0.9155047411885098        0.028187919463087248
0.9151900413771455        0.028201342281879198
0.9148703241362842        0.02821476510067114
0.9145454824716299        0.028228187919463087
0.9142154063150381        0.028241610738255034
0.913879982419355         0.02825503355704698
0.9135390942451077        0.028268456375838923
0.9131926218571852        0.028281879194630873
0.9128404418033731        0.02829530201342282
0.9124824269987645        0.028308724832214766
0.9121184466117673        0.028322147651006713
0.9117483659157063        0.028335570469798656
0.9113720461674706        0.028348993288590606
0.9109893444645912        0.02836241610738255
0.9106001136073688        0.0283758389261745
0.9102042019374199        0.028389261744966445
0.9098014531812708        0.028402684563758388
0.9093917062951083        0.028416107382550338
0.9089747953012116        0.02842953020134228
0.9085505490760254        0.02844295302013423
0.9081187912095553        0.028456375838926174
0.9076793397956368        0.02846979865771812
0.9072320072117489        0.028483221476510067
0.906776599943257         0.028496644295302014
0.9063129183594072        0.028510067114093963
0.905840756450715         0.028523489932885907
0.9053599016617873        0.028536912751677853
0.9048701345653276        0.0285503355704698
0.9043712286770257        0.028563758389261746
0.903862950134604         0.02857718120805369
0.9033450574532007        0.02859060402684564
0.9028173012042587        0.028604026845637582
0.9022794237544501        0.028617449664429532
0.9017311588917661        0.02863087248322148
0.901172231534257         0.02864429530201342
0.9006023573822427        0.02865771812080537
0.9000212425331529        0.028671140939597314
0.8994285831167337        0.028684563758389264
0.8988240649052964        0.028697986577181207
0.8982073628895871        0.028711409395973154
0.8975781408502257        0.028724832214765104
0.8969360509288362        0.028738255033557047
0.8962807331057204        0.028751677852348997
0.8956118147494375        0.02876510067114094
0.8949289100829396        0.028778523489932886
0.8942316196478988        0.028791946308724833
0.8935195297339746        0.02880536912751678
0.8927922117815553        0.028818791946308722
0.8920492217841611        0.028832214765100672
0.8912900995966764        0.02884563758389262
0.8905143683100204        0.028859060402684565
0.8897215334773688        0.02887248322147651
0.8889110824083388        0.028885906040268455
0.8880824833786815        0.028899328859060405
0.8872351847875882        0.028912751677852348
0.8863686143267083        0.028926174496644298
0.8854821780455265        0.02893959731543624
0.8845752594442887        0.028953020134228187
0.8836472184260556        0.028966442953020137
0.8826973902999297        0.02897986577181208
0.8817250846643948        0.02899328859060403
0.8807295842689222        0.029006711409395973
0.8797101437840031        0.02902013422818792
0.878665988556876         0.029033557046979866
0.877596313304318         0.029046979865771812
0.876500280644717         0.029060402684563762
0.8753770196889992        0.029073825503355705
0.874225624492282         0.029087248322147652
0.8730451524120059        0.0291006711409396
0.87183462240475          0.029114093959731545
0.8705930132763271        0.029127516778523488
0.8693192617604774        0.029140939597315438
0.8680122605496882        0.02915436241610738
0.8666708562003642        0.02916778523489933
0.8652938470217897        0.029181208053691277
0.8638799806656614        0.02919463087248322
0.8624279518144747        0.02920805369127517
0.8609363995688091        0.029221476510067113
0.8594039048045785        0.029234899328859063
0.8578289873752775        0.029248322147651006
0.8562101031384496        0.029261744966442953
0.8545456408692026        0.0292751677852349
0.8528339189757098        0.029288590604026846
0.8510731820824232        0.029302013422818796
0.8492615974155956        0.02931543624161074
0.8473972510455539        0.029328859060402685
0.8454781438502378        0.02934228187919463
0.8435021873811904        0.029355704697986578
0.8414671994287705        0.02936912751677852
0.839370899451828         0.02938255033557047
0.8372109037309614        0.029395973154362418
0.8349847202622532        0.029409395973154364
0.8326897434926354        0.02942281879194631
0.8303232486571916        0.029436241610738254
0.827882386061545         0.029449664429530203
0.8253641747939952        0.029463087248322146
0.8227654965478679        0.029476510067114096
0.8200830887650562        0.02948993288590604
0.8173135377451981        0.029503355704697986
0.8144532713776493        0.029516778523489936
0.8114985515328614        0.02953020134228188
0.8084454662147645        0.02954362416107383
0.805289921414773         0.029557046979865772
0.8020276325522627        0.02957046979865772
0.7986541158080788        0.029583892617449665
0.7951646790077942        0.02959731543624161
0.791554412343599         0.029610738255033554
0.7878181787822786        0.029624161073825504
0.7839506042985682        0.02963758389261745
0.7799460678756631        0.029651006711409397
0.7757986914324934        0.029664429530201344
0.7715023295663525        0.029677852348993287
0.7670505592480679        0.029691275167785237
0.762436669699993         0.02970469798657718
0.7576536522071612        0.02971812080536913
0.7526941903013784        0.029731543624161076
0.7475506501056254        0.02974496644295302
0.7422150714372122        0.02975838926174497
0.7366791593617222        0.029771812080536912
0.7309342766181434        0.029785234899328862
0.724971436927402         0.029798657718120805
0.7187813001751469        0.02981208053691275
0.7123541683429826        0.029825503355704698
0.7056799840309699        0.029838926174496645
0.69874833079361          0.029852348993288595
0.6915484362929167        0.029865771812080538
0.6840691785960513        0.029879194630872484
0.6762990957474954        0.02989261744966443
0.6682263998469276        0.029906040268456377
0.659838995345051         0.02991946308724832
0.6511245030737679        0.02993288590604027
0.6420702898968943        0.029946308724832213
0.6326635053130691        0.029959731543624163
0.6228911252164572        0.02997315436241611
0.6127400040540544        0.029986577181208052
0.6021969360238071        0.030000000000000002
0.5912487255400743        0.030013422818791945
0.5798822688952253        0.030026845637583895
0.5680846464408383        0.03004026845637584
0.5558432270267389        0.030053691275167785
0.5431457843570586        0.030067114093959735
0.5299806262604752        0.030080536912751678
0.5163367365509388        0.030093959731543628
0.5022039293231058        0.03010738255033557
0.4875730156379347        0.030120805369127517
0.47243598137413007       0.030134228187919464
0.4567861751694516        0.03014765100671141
0.4406185041200482        0.030161073825503353
0.4239296366031142        0.030174496644295303
0.4067182071170663        0.03018791946308725
0.38898502154193837       0.030201342281879196
0.37073325827986175       0.030214765100671143
0.3519686600445955        0.030228187919463086
0.3326997127033252        0.030241610738255036
0.3129378048286901        0.03025503355704698
0.2926973629574695        0.03026845637583893
0.27199595655042996       0.03028187919463087
0.250854369562943         0.030295302013422818
0.22929663131010716       0.030308724832214768
0.20735000732853143       0.03032214765100671
0.18504495025112255       0.03033557046979866
0.16241501581457887       0.030348993288590604
0.13949676977492154       0.03036241610738255
0.11632974364913572       0.030375838926174497
0.09295662861402437       0.030389261744966443
0.0694244004617833        0.030402684563758393
0.04578994396092683       0.030416107382550336
0.02216418594261764       0.030429530201342283
0.003566943118809707      0.03044295302013423
0.025824436441444186      0.030456375838926176
0.04942821635885087       0.03046979865771812
0.07298514473875942       0.03048322147651007
0.0964043930236811        0.030496644295302012
0.11963254163525301       0.030510067114093962
0.14262451589346392       0.03052348993288591
0.16533936172014158       0.03053691275167785
0.18773936209107484       0.0305503355704698
0.2097898832552871        0.030563758389261744
0.23145940762169526       0.030577181208053694
0.2527196014090292        0.030590604026845637
0.27354536511416033       0.030604026845637584
0.29391485198885736       0.03061744966442953
0.31380944597982446       0.030630872483221477
0.33321370164588426       0.030644295302013427
0.35211524930810656       0.03065771812080537
0.37050466805336213       0.030671140939597316
0.3883753331447706        0.030684563758389263
0.40572324379197205       0.03069798657718121
0.42254683406125915       0.030711409395973152
0.4388467749090695        0.030724832214765102
0.45462577013660344       0.03073825503355705
0.4698883512123158        0.030751677852348995
0.48464067355812124       0.03076510067114094
0.4988903190367379        0.030778523489932885
0.5126461049569568        0.030791946308724834
0.5259179032643899        0.030805369127516777
0.5387164704990763        0.030818791946308727
0.5510532894005966        0.03083221476510067
0.5629404230665659        0.030845637583892617
0.5743903819776428        0.030859060402684567
0.5854160035114253        0.03087248322147651
0.5960303433477853        0.03088590604026846
0.6062465798658787        0.030899328859060403
0.6160779288529686        0.03091275167785235
0.6255375696891645        0.030926174496644296
0.6346385807832107        0.030939597315436242
0.6433938850269725        0.030953020134228185
0.6518162027635801        0.030966442953020135
0.6599180134481086        0.030979865771812082
0.667711523000547         0.03099328859060403
0.6752086386442236        0.031006711409395975
0.6824209481202242        0.031020134228187918
0.6893597046533673        0.031033557046979868
0.6960358154554347        0.03104697986577181
0.702459834639706         0.03106040268456376
0.708641958753771         0.031073825503355707
0.7145920256064877        0.03108724832214765
0.7203195150792742        0.0311006711409396
0.7258335521425805        0.031114093959731543
0.7311429115351992        0.031127516778523493
0.7362560237685669        0.031140939597315436
0.7411809822659976        0.031154362416107383
0.7459255515043678        0.031167785234899326
0.7504971757286212        0.031181208053691276
0.754902988324852         0.031194630872483226
0.7591498215222058        0.03120805369127517
0.7632442163699077        0.031221476510067115
0.7671924328877423        0.03123489932885906
0.7710004602684278        0.031248322147651008
0.7746740271049206        0.031261744966442954
0.7782186115188409        0.0312751677852349
0.7816394510897033        0.03128859060402684
0.7849415527336898        0.03130201342281879
0.7881297022777267        0.03131543624161074
0.7912084739437162        0.03132885906040268
0.7941822392984691        0.03134228187919463
0.7970551761850322        0.031355704697986576
0.7998312773599665        0.031369127516778526
0.8025143585213095        0.03138255033557047
0.8051080665552285        0.03139597315436242
0.8076158869856416        0.03140939597315436
0.8100411514488134        0.03142281879194631
0.8123870446365429        0.031436241610738255
0.8146566112537384        0.0314496644295302
0.8168527623338566        0.03146308724832215
0.8189782815153421        0.03147651006711409
0.8210358309810116        0.03148993288590604
0.8230279570765979        0.031503355704697984
0.824957095743209         0.031516778523489934
0.8268255776810935        0.031530201342281884
0.8286356332670601        0.03154362416107383
0.8303893972485982        0.03155704697986578
0.8320889131672379        0.03157046979865772
0.833736137681495         0.03158389261744966
0.8353329445680433        0.031597315436241606
0.8368811286154392        0.031610738255033556
0.8383824092655623        0.0316241610738255
0.8398384341165666        0.03163758389261745
0.8412507822556108        0.0316510067114094
0.842620967434701         0.03166442953020134
0.8439504410336169        0.03167785234899329
0.8452405949625557        0.031691275167785235
0.846492764386431         0.031704697986577185
0.8477082303070806        0.03171812080536913
0.8488882219712831        0.03173154362416108
0.8500339193223779        0.03174496644295302
0.8511464551471224        0.031758389261744964
0.8522269172217474        0.031771812080536914
0.8532763503291222        0.03178523489932886
0.8542957581607717        0.03179865771812081
0.8552861051877001        0.03181208053691275
0.8562483183445385        0.0318255033557047
0.8571832887187909        0.03183892617449664
0.8580918731102305        0.03185234899328859
0.8589748955279775        0.03186577181208054
0.8598331486274468        0.031879194630872486
0.8606673950644598        0.03189261744966443
0.8614783687809873        0.03190604026845637
0.8622667762476388        0.03191946308724832
0.8630332976325064        0.031932885906040265
0.8637785879039367        0.031946308724832215
0.864503277948101         0.03195973154362416
0.865207975513634         0.03197315436241611
0.8658932662277978        0.03198657718120806
0.8665597145050525        0.032
0.8672078644332291        0.03201342281879195
0.8678382405954573        0.032026845637583894
0.8684513488976405        0.032040268456375844
0.869047677306823         0.03205369127516779
0.8696276965889932        0.03206711409395973
0.8701918610277446        0.03208053691275168
0.870740609058756         0.03209395973154362
0.8712743639007567        0.03210738255033557
0.8717935341990992        0.032120805369127516
0.8722985145600012        0.032134228187919466
0.8727896861413377        0.03214765100671141
0.8732674171456095        0.03216107382550336
0.8737320633566574        0.0321744966442953
0.8741839686067872        0.03218791946308725
0.8746234652478418        0.032201342281879194
0.8750508745640388        0.032214765100671144
0.8754665072449289        0.03222818791946309
0.8758706637404224        0.03224161073825503
0.8762636346686925        0.03225503355704698
0.8766457012109979        0.03226845637583892
0.8770171354028067        0.03228187919463087
0.8773782005404324        0.03229530201342282
0.877729151465656         0.032308724832214766
0.8780702348900595        0.032322147651006716
0.8784016896926273        0.03233557046979866
0.8787237472084964        0.03234899328859061
0.8790366314796917        0.03236241610738255
0.8793405595716407        0.032375838926174495
0.8796357417502985        0.03238926174496644
0.8799223818058161        0.03240268456375839
0.8802006772048886        0.03241610738255034
0.8804708193754859        0.03242953020134228
0.8807329938711094        0.03244295302013423
0.8809873806435929        0.032456375838926174
0.8812341541428641        0.032469798657718124
0.8814734835815469        0.03248322147651007
0.8817055331084783        0.03249664429530202
0.881930461943224         0.03251006711409396
0.8821484245808853        0.03252348993288591
0.882359570928653         0.03253691275167785
0.8825640464802763        0.032550335570469796
0.8827619924578655        0.032563758389261746
0.8829535459319693        0.03257718120805369
0.8831388400050165        0.03259060402684564
0.8833180038888969        0.03260402684563758
0.8834911630905072        0.03261744966442953
0.8836584394725925        0.03263087248322148
0.8838199514165639        0.032644295302013425
0.8839758139270053        0.032657718120805375
0.8841261387128605        0.03267114093959732
0.884271034336609         0.03268456375838926
0.884410606274555         0.032697986577181204
0.8845449570407338        0.032711409395973154
0.8846741862642438        0.0327248322147651
0.8847983907922189        0.03273825503355705
0.884917664760186         0.032751677852349
0.8850320997022428        0.03276510067114094
0.8851417846009042        0.03277852348993289
0.8852468059788929        0.03279194630872483
0.8853472479894762        0.03280536912751678
0.8854431924545835        0.032818791946308726
0.8855347189625695        0.032832214765100676
0.8856219049345551        0.03284563758389262
0.8857048256632747        0.03285906040268456
0.8857835544042219        0.03287248322147651
0.8858581624273458        0.032885906040268455
0.8859287190633258        0.032899328859060405
0.8859952917792615        0.03291275167785235
0.886057946214693         0.0329261744966443
0.8861167462516478        0.03293959731543624
0.8861717540469556        0.03295302013422819
0.8862230300897824        0.03296644295302014
0.8862706332635103        0.032979865771812084
0.8863146208549574        0.03299328859060403
0.8863550486396646        0.03300671140939597
0.8863919708954585        0.03302013422818792
0.8864254404538745        0.03303355704697986
0.8864555087372111        0.03304697986577181
0.8864822258039908        0.033060402684563756
0.8865056403783474        0.033073825503355705
0.8865257998895426        0.033087248322147655
0.8865427504957674        0.0331006711409396
0.8865565371504727        0.03311409395973155
0.8865672035837441        0.03312751677852349
0.8865747923819775        0.03314093959731544
0.886579344985551         0.033154362416107384
0.8865809017408828        0.03316778523489933
0.8865795019069894        0.03318120805369127
0.8865751837012708        0.03319463087248322
0.8865679843199076        0.03320805369127517
0.8865579399594447        0.03322147651006711
0.8865450858461401        0.03323489932885906
0.8865294562541003        0.033248322147651006
0.8865110845425181        0.033261744966442956
0.8864900031620104        0.0332751677852349
0.8864662436842811        0.03328859060402685
0.886439836822172         0.03330201342281879
0.8864108124504894        0.033315436241610735
0.8863791996282415        0.033328859060402685
0.8863450266110309        0.03334228187919463
0.8863083208747558        0.03335570469798658
0.8862691091295993        0.03336912751677852
0.8862274173499959        0.03338255033557047
0.8861832707656185        0.033395973154362414
0.8861366939097889        0.033409395973154364
0.8860877106075228        0.033422818791946314
0.8860363440062204        0.03343624161073826
0.8859826165894918        0.03344966442953021
0.885926550187174         0.03346308724832215
0.8858681659846965        0.03347651006711409
0.8858074845441053        0.033489932885906036
0.8857445258248843        0.033503355704697986
0.8856793091739769        0.03351677852348993
0.8856118533618519        0.03353020134228188
0.8855421765734988        0.03354362416107383
0.8854702964379478        0.03355704697986577
0.8853962300236342        0.03357046979865772
0.8853199938557401        0.033583892617449665
0.8852416039406839        0.033597315436241615
0.8851610757454504        0.03361073825503356
0.885078424232043         0.0336241610738255
0.8849936638582903        0.03363758389261745
0.8849068085876365        0.033651006711409394
0.8848178719004078        0.033664429530201344
0.8847268667902694        0.03367785234899329
0.88463380579446          0.03369127516778524
0.8845387009807567        0.03370469798657718
0.884441563965553         0.03371812080536913
0.8843424059178435        0.03373154362416107
0.8842412375708779        0.03374496644295302
0.8841380692126666        0.03375838926174497
0.8840329107262244        0.033771812080536916
0.8839257715561446        0.03378523489932886
0.8838166607451802        0.0337986577181208
0.8837055869261119        0.03381208053691275
0.883592558321395         0.033825503355704695
0.8834775827676814        0.033838926174496645
0.8833606677081329        0.03385234899328859
0.8832418201961799        0.03386577181208054
0.8831210469027395        0.03387919463087249
0.8829983541295331        0.03389261744966443
0.8828737477976779        0.03390604026845638
0.8827472334656177        0.033919463087248324
0.8826188163237063        0.03393288590604027
0.8824885012059273        0.033946308724832217
0.8823562925877524        0.03395973154362416
0.8822221945952446        0.03397315436241611
0.8820862109956982        0.03398657718120805
0.8819483452224827        0.034
0.8818086003560532        0.034013422818791945
0.8816669791400827        0.034026845637583895
0.8815234839793604        0.03404026845637584
0.8813781169466558        0.03405369127516779
0.8812308797820579        0.03406711409395973
0.8810817738877336        0.03408053691275168
0.8809308003449778        0.034093959731543624
0.8807779599062503        0.03410738255033557
0.8806232529972918        0.03412080536912752
0.8804666797241438        0.03413422818791946
0.8803082398732621        0.03414765100671141
0.8801479329010718        0.03416107382550335
0.8799857579552568        0.0341744966442953
0.8798217138611293        0.034187919463087246
0.8796557991286763        0.034201342281879196
0.8794880119525703        0.034214765100671146
0.879318350205979         0.03422818791946309
0.8791468114510276        0.03424161073825503
0.8789733929447195        0.03425503355704698
0.8787980916143338        0.034268456375838925
0.8786209040809334        0.03428187919463087
0.8784418266527202        0.03429530201342282
0.878260855320531         0.03430872483221477
0.8780779857629811        0.03432214765100671
0.877893213341281         0.03433557046979866
0.8777065331036615        0.034348993288590604
0.8775179397844413        0.034362416107382554
0.8773274278000507        0.0343758389261745
0.8771349912422048        0.03438926174496645
0.876940623893759         0.03440268456375839
0.8767443192174501        0.03441610738255033
0.8765460703460143        0.03442953020134228
0.8763458700981136        0.034442953020134226
0.8761437109679976        0.034456375838926176
0.8759395851194424        0.03446979865771812
0.875733484387826         0.03448322147651007
0.8755254002894561        0.03449664429530201
0.8753153239934259        0.03451006711409396
0.8751032463570896        0.034523489932885905
0.874889157877454         0.034536912751677855
0.8746730487250826        0.0345503355704698
0.8744549087296013        0.03456375838926175
0.8742347273768023        0.03457718120805369
0.8740124937991917        0.034590604026845634
0.8737881967887438        0.034604026845637584
0.8735618247692666        0.03461744966442953
0.8733333658296658        0.03463087248322148
0.8731028076791169        0.03464429530201343
0.8728701376677109        0.03465771812080537
0.8726353427879304        0.03467114093959732
0.8723984096450641        0.03468456375838926
0.8721593244830363        0.03469798657718121
0.8719180731542384        0.034711409395973156
0.8716746411310452        0.0347248322147651
0.8714290135037418        0.03473825503355705
0.8711811749501904        0.03475167785234899
0.8709311097659835        0.03476510067114094
0.8706788018413782        0.034778523489932885
0.8704242346452556        0.034791946308724835
0.8701673912410403        0.03480536912751678
0.8699082542753261        0.03481879194630873
0.8696468059522356        0.03483221476510067
0.8693830280605481        0.03484563758389262
0.8691169019383373        0.034859060402684564
0.8688484084885938        0.034872483221476513
0.86857752814711          0.034885906040268456
0.8683042409034827        0.0348993288590604
0.8680285262795863        0.03491275167785235
0.8677503633223616        0.03492617449664429
0.8674697305960705        0.03493959731543624
0.8671866061733405        0.034953020134228185
0.8669009676352991        0.034966442953020135
0.8666127920607876        0.034979865771812085
0.8663220560067053        0.03499328859060403
0.8660287355146364        0.03500671140939598
0.8657328060934121        0.03502013422818792
0.8654342427081738        0.035033557046979864
0.8651330197820918        0.035046979865771814
0.8648291111655529        0.03506040268456376
0.8645224901543801        0.0350738255033557
0.8642131294488696        0.03508724832214765
0.8639010011745704        0.0351006711409396
0.8635860768438268        0.03511409395973154
0.8632683273603123        0.03512751677852349
0.8629477230046971        0.035140939597315436
0.862624233415209         0.035154362416107386
0.8622978275861343        0.03516778523489933
0.8619684738519003        0.03518120805369128
0.861636139868719         0.03519463087248322
0.8613007926098969        0.035208053691275165
0.860962398342017         0.035221476510067115
0.8606209226235492        0.03523489932885906
0.8602763302783832        0.03524832214765101
0.8599285853909607        0.03526174496644295
0.8595776512758345        0.0352751677852349
0.859223490488819         0.035288590604026844
0.8588660647788124        0.035302013422818794
0.8585053350972297        0.035315436241610744
0.8581412615626685        0.03532885906040269
0.8577738034633897        0.03534228187919463
0.8574029192158535        0.03535570469798658
0.8570285663647956        0.03536912751677852
0.8566507015552776        0.035382550335570466
0.8562692805136484        0.035395973154362416
0.8558842580346374        0.03540939597315436
0.8554955879506739        0.03542281879194631
0.855103223117262         0.03543624161073826